Reference ID,Formula,Microstructure,Processing Method,Calculated Density (g/cm³),Yield Strength (MPa)
27,Al0.25 Co1 Fe1 Ni1,FCC,CAST,7.9,158.0
27,Al0.5 Co1 Fe1 Ni1,FCC+BCC,CAST,7.4,346.0
27,Al0.75 Co1 Fe1 Ni1,FCC+BCC,CAST,7.0,794.0
27,Al1 Co1 Fe1 Ni1,BCC,CAST,6.6,964.0
27,Co1 Fe1 Ni1,FCC,CAST,8.5,204.0
27,Co1 Fe1 Ni1,FCC,CAST,8.5,209.0
27,Co1 Fe1 Ni1 Si0.25,FCC,CAST,7.7,196.0
27,Co1 Fe1 Ni1 Si0.5,FCC+Sec.,CAST,7.1,476.0
27,Co1 Fe1 Ni1 Si0.75,FCC+Sec.,CAST,6.6,1301.0
2,Al0.7 Co0.3 Cr1 Fe1 Ni1,FCC+BCC+B2,POWDER,6.8,2033.0
5,Al1 Co1 Cr1 Fe1 Ni1,BCC,CAST,6.7,1251.0
6,Al1 C0.1 Co1 Cr1 Fe1 Ni1,BCC+Sec.,CAST,6.7,957.0
6,Al1 C0.2 Co1 Cr1 Fe1 Ni1,BCC+Sec.,CAST,6.6,906.0
6,Al1 C0.3 Co1 Cr1 Fe1 Ni1,BCC+Sec.,CAST,6.5,867.0
6,Al1 C0.4 Co1 Cr1 Fe1 Ni1,BCC+Sec.,CAST,6.5,1056.0
6,Al1 C0.5 Co1 Cr1 Fe1 Ni1,BCC+Sec.,CAST,6.4,1060.0
6,Al0.667 C1 Co0.667 Cr0.667 Fe0.667 Ni0.667,BCC+Sec.,CAST,5.9,1255.0
6,Al1 C1 Co1 Cr1 Fe1 Ni1,BCC+Sec.,CAST,6.2,1251.0
6,Al1 Co1 Cr1 Fe1 Ni1,BCC,CAST,6.7,1138.0
7,Al1 Co1 Cr1 Fe1 Mo0.1 Ni1,BCC,CAST,6.8,1804.0
7,Al1 Co1 Cr1 Fe1 Mo0.2 Ni1,BCC+Sec.,CAST,6.9,2456.0
7,Al1 Co1 Cr1 Fe1 Mo0.3 Ni1,BCC+Sec.,CAST,7.0,2649.0
7,Al1 Co1 Cr1 Fe1 Mo0.4 Ni1,BCC+Sec.,CAST,7.0,2670.0
7,Al1 Co1 Cr1 Fe1 Mo0.5 Ni1,BCC+Sec.,CAST,7.1,2757.0
7,Al1 Co1 Cr1 Fe1 Ni1,BCC,CAST,6.7,1051.0
8,Al1 Co1 Cr1 Fe1 Nb0.1 Ni1,BCC,CAST,6.8,1641.0
8,Al1 Co1 Cr1 Fe1 Nb0.25 Ni1,BCC+Sec.,CAST,6.8,1959.0
8,Al1 Co1 Cr1 Fe1 Nb0.5 Ni1,BCC+Sec.,CAST,7.0,2473.0
8,Al1 Co1 Cr1 Fe1 Ni1,BCC,CAST,6.7,1373.0
12,Al1 Co1 Cr1 Fe1 Ni1,BCC,CAST,6.7,1110.0
12,Al1 Co1 Cr1 Fe1 Ni1 Si1,BCC+Sec.,CAST,5.7,2411.0
12,Al1 Co1 Cr1 Fe1 Ni1 Si0.2,BCC,CAST,6.5,1265.0
12,Al1 Co1 Cr1 Fe1 Ni1 Si0.4,BCC,CAST,6.2,1481.0
12,Al1 Co1 Cr1 Fe1 Ni1 Si0.6,BCC,CAST,6.0,1834.0
12,Al1 Co1 Cr1 Fe1 Ni1 Si0.8,BCC+Sec.,CAST,5.8,2179.0
13,Al0.25 Co1 Cr1 Cu0.75 Fe1 Ni1 Ti0.5,FCC,CAST,7.5,750.0
13,Al0.5 Co1 Cr1 Cu0.5 Fe1 Ni1 Ti0.5,FCC+BCC,CAST,7.1,1580.0
13,Al0.75 Co1 Cr1 Cu0.25 Fe1 Ni1 Ti0.5,FCC+BCC,CAST,6.8,1900.0
13,Co1 Cr1 Cu1 Fe1 Ni1 Ti0.5,FCC,CAST,7.8,700.0
14,Al1 Co1 Cr1 Fe1 Ni1 Ti1,BCC+BCC,CAST,6.2,1860.0
14,Al1 Co1 Cr1 Fe1 Ni1 Ti0.5,BCC+BCC,CAST,6.4,2260.0
14,Al0.667 Co0.667 Cr0.667 Fe0.667 Ni0.667 Ti1,BCC+Sec.,CAST,6.1,2220.0
17,Co1 Cr1 Fe1 Mn1 Ni1,FCC,ANNEAL,8.0,230.0
17,Co1 Cr1 Fe1 Mn1 Ni1 V0.25,FCC+Sec.,ANNEAL,7.9,200.0
17,Co1 Cr1 Fe1 Mn1 Ni1 V0.5,FCC,ANNEAL,7.8,620.0
17,Co1 Cr1 Fe1 Mn1 Ni1 V0.75,FCC+Sec.,ANNEAL,7.7,740.0
17,Co1 Cr1 Fe1 Mn1 Ni1 V1,FCC+Sec.,ANNEAL,7.7,1660.0
19,Al1 Cr1 Fe1 Ni1,BCC+B2,CAST,6.3,1406.0
19,Al1 Cr1 Fe1 Mo0.2 Ni1,BCC+B2,CAST,6.5,1487.0
19,Al1 Cr1 Fe1 Mo0.5 Ni1,BCC+B2,CAST,6.8,1749.0
19,Al1 Cr1 Fe1 Mo0.8 Ni1,B2+Sec.,CAST,7.0,1513.0
22,Co1 Cr1 Cu1 Fe1 Ni1 Ti1,FCC,CAST,7.4,1272.0
22,Co1 Cr1 Cu1 Fe1 Ni1 Ti0.5,FCC,CAST,7.8,700.0
22,Co1 Cr1 Cu1 Fe1 Ni1 Ti0.8,FCC+Sec.,CAST,7.6,1042.0
28,Al1 Co1 Cr1 Cu1 Fe1 Mn1 Ni1,FCC+BCC+Sec.,CAST,7.1,1005.0
28,Al1 Co1 Cr1 Cu1 Fe1 Ni1,FCC+BCC,CAST,7.1,1303.0
28,Al1 Co1 Cr1 Cu1 Fe1 Ni1 Ti1,FCC+BCC+BCC,CAST,6.6,1234.0
28,Al1 Co1 Cr1 Cu1 Fe1 Ni1 V1,FCC+BCC,CAST,6.9,1469.0
35,Al1 Cu0.889 Fe0.667 Ni0.889 Ti1,FCC,CAST,5.9,980.0
35,Al1 Cu1 Fe1 Ni1 Ti1,FCC,CAST,6.1,1074.0
35,Al1 Cu1 Ni1 Ti1,FCC,CAST,5.7,300.0
36,Al1 Cu0.062 Li0.062 Mg0.062 Zn0.062,FCC+Sec.,CAST,2.9,488.0
36,Al1 Li0.062 Mg0.062 Sn0.062 Zn0.062,FCC+Sec.,CAST,3.0,415.0
36,Al1 Li0.5 Mg1 Sn0.2 Zn0.5,FCC+Sec.,CAST,2.9,546.0
36,Al1 Li1 Mg1 Sn1 Zn1,FCC+HCP+Sec.,CAST,3.9,600.0
39,Al0.214 Nb0.714 Ta0.571 Ti1 V0.143 Zr0.929,BCC,OTHER,7.7,1965.0
39,Al0.214 Nb0.714 Ta0.714 Ti1 Zr0.929,BCC,OTHER,8.1,1965.0
39,Al0.4 Hf0.6 Nb1 Ta1 Ti1 Zr1,BCC,OTHER,9.1,1841.0
39,Al0.333 Nb0.667 Ta0.533 Ti1 V0.133 Zr0.667,BCC,OTHER,7.6,2035.0
39,Al1 Mo0.5 Nb1 Ta0.5 Ti1 Zr1,BCC+B2,OTHER,7.1,2000.0
39,Al0.667 Nb1 Ta0.333 Ti1 Zr0.333,BCC,OTHER,6.8,1280.0
40,Al0.3 Hf1 Nb1 Ta1 Ti1 Zr1,BCC,CAST,9.5,1188.0
40,Al0.5 Hf1 Nb1 Ta1 Ti1 Zr1,BCC,CAST,9.3,1302.0
40,Al0.75 Hf1 Nb1 Ta1 Ti1 Zr1,BCC,CAST,9.1,1415.0
40,Al1 Hf1 Nb1 Ta1 Ti1 Zr1,BCC+Sec.,CAST,8.9,1489.0
40,Hf1 Nb1 Ta1 Ti1 Zr1,BCC,CAST,9.9,1073.0
41,Al0.25 Mo1 Nb1 Ti1 V1,BCC,CAST,7.1,1250.0
41,Al0.5 Mo1 Nb1 Ti1 V1,BCC,CAST,6.8,1625.0
41,Al0.75 Mo1 Nb1 Ti1 V1,BCC,CAST,6.6,1260.0
41,Al1 Mo1 Nb1 Ti1 V1,BCC,CAST,6.4,1375.0
41,Mo1 Nb1 Ti1 V1,BCC,CAST,7.3,1200.0
42,Al0.25 Nb1 Ta1 Ti1 V1,BCC,CAST,8.8,1330.0
42,Al0.5 Nb1 Ta1 Ti1 V1,BCC,CAST,8.5,1014.0
42,Al1 Nb1 Ta1 Ti1 V1,BCC,CAST,7.9,993.0
42,Nb1 Ta1 Ti1 V1,BCC,CAST,9.2,1092.0
43,Al1 Nb1 Ti1 V1,BCC,ANNEAL,5.5,1020.0
44,Cr1 Mo0.5 Nb1 Ta0.5 Ti1 Zr1,BCC+BCC+Sec.,OTHER,8.0,1595.0
45,Cr1 Nb1 Ti1 V1 Zr1,BCC+Sec.,OTHER,6.6,1298.0
45,Cr1 Nb1 Ti1 Zr1,BCC+Sec.,OTHER,6.6,1260.0
45,Nb0.5 Ti0.5 V1 Zr0.5,BCC,OTHER,6.4,918.0
45,Nb1 Ti1 V1 Zr1,BCC,OTHER,6.5,1105.0
47,Hf0.5 Mo0.5 Nb1 Ti1 Zr1,BCC,CAST,7.9,1176.0
47,C0.1 Hf0.5 Mo0.5 Nb1 Ti1 Zr1,BCC+Sec.,CAST,7.8,1183.0
47,C0.3 Hf0.5 Mo0.5 Nb1 Ti1 Zr1,BCC+Sec.,CAST,7.7,1201.0
48,Hf1 Mo0.25 Nb1 Ta1 Ti1 Zr1,BCC,CAST,9.9,1112.0
48,Hf1 Mo0.5 Nb1 Ta1 Ti1 Zr1,BCC,CAST,9.9,1317.0
48,Hf1 Mo0.75 Nb1 Ta1 Ti1 Zr1,BCC,CAST,9.9,1373.0
48,Hf1 Mo1 Nb1 Ta1 Ti1 Zr1,BCC,CAST,9.9,1512.0
48,Hf1 Nb1 Ta1 Ti1 Zr1,BCC,CAST,9.9,1015.0
49,Hf1 Mo1 Nb1 Ta1 Ti1 Zr1,BCC,CAST,9.9,1512.0
49,Hf1 Mo1 Ta1 Ti1 Zr1,BCC,CAST,10.2,1600.0
50,Hf1 Mo1 Nb1 Ti1 Zr1,BCC,ANNEAL,8.7,1575.0
50,Hf1 Mo1 Nb1 Ti1 Zr1,BCC,CAST,8.7,1719.0
51,Hf1 Nb1 Si0.5 Ti1 V1,BCC+Sec.,CAST,7.8,1399.0
53,Hf1 Nb1 Ta1 Ti1 Zr1,BCC,OTHER,9.9,929.0
56,Mo1 Nb1 Ta1 V1,BCC,ANNEAL,10.7,1525.0
57,Mo1 Nb1 Ta1 V1 W1,BCC,CAST,12.4,1246.0
57,Mo1 Nb1 Ta1 W1,BCC,CAST,13.7,1058.0
58,Mo0.3 Nb1 Ti1 V1 Zr1,BCC,ANNEAL,6.7,1289.0
58,Mo0.5 Nb1 Ti1 V1 Zr1,BCC,ANNEAL,6.8,1473.0
58,Mo0.7 Nb1 Ti1 V1 Zr1,BCC,ANNEAL,6.9,1706.0
58,Mo1 Nb0.769 Ti0.769 V0.769 Zr0.769,BCC,ANNEAL,7.3,1496.0
58,Mo1 Nb0.667 Ti0.667 V0.667 Zr0.667,BCC,ANNEAL,7.4,1603.0
58,Mo1 Nb0.588 Ti0.588 V0.588 Zr0.588,BCC,ANNEAL,7.5,1645.0
58,Mo1 Nb0.5 Ti0.5 V0.5 Zr0.5,BCC,ANNEAL,7.6,1765.0
58,Mo1 Nb1 Ti1 V1 Zr1,BCC,ANNEAL,7.1,1779.0
58,Mo1 Nb1 Ti1 V0.3 Zr1,BCC,ANNEAL,7.2,1455.0
58,Mo0.1 Nb1 Ti1 V0.3 Zr1,BCC,ANNEAL,6.6,932.0
58,Mo0.3 Nb1 Ti1 V0.3 Zr1,BCC,ANNEAL,6.8,1312.0
58,Mo0.5 Nb1 Ti1 V0.3 Zr1,BCC,ANNEAL,6.9,1301.0
58,Mo0.7 Nb1 Ti1 V0.3 Zr1,BCC,ANNEAL,7.1,1436.0
58,Mo1 Nb0.769 Ti0.769 V0.231 Zr0.769,BCC,ANNEAL,7.4,1603.0
58,Mo1 Nb0.667 Ti0.667 V0.2 Zr0.667,BCC,ANNEAL,7.5,1576.0
58,Nb1 Ti1 V0.3 Zr1,BCC,ANNEAL,6.5,866.0
58,Nb1 Ti1 V1 Zr1,BCC,ANNEAL,6.5,1104.0
59,Mo1 Nb1 Ti1 V0.25 Zr1,BCC,CAST,7.3,1776.0
59,Mo1 Nb1 Ti1 V0.5 Zr1,BCC,CAST,7.2,1647.0
59,Mo1 Nb1 Ti1 V0.75 Zr1,BCC,CAST,7.2,1708.0
59,Mo1 Nb1 Ti1 V1 Zr1,BCC,CAST,7.1,1786.0
59,Mo0.667 Nb0.667 Ti0.667 V1 Zr0.667,BCC,CAST,7.1,1735.0
59,Mo0.5 Nb0.5 Ti0.5 V1 Zr0.5,BCC,CAST,7.0,1538.0
59,Mo0.333 Nb0.333 Ti0.333 V1 Zr0.333,BCC,CAST,6.9,1418.0
59,Mo1 Nb1 Ti1 Zr1,BCC,CAST,7.3,1592.0
61,Al0.125 Co1 Cr1 Cu1 Fe1 Mn1 Ni1 Ti1 V1,FCC+BCC,CAST,7.2,1862.0
61,Al0.25 Co1 Cr1 Cu1 Fe1 Mn1 Ni1 Ti1 V1,BCC,CAST,7.1,1465.0
61,Al0.667 Co1 Cr1 Cu1 Fe1 Mn1 Ni1 Ti1 V1,BCC+Sec.,CAST,6.8,1461.0
61,Co1 Cr1 Cu1 Fe1 Mn1 Ni1 Ti1 V1,FCC+BCC+Sec.,CAST,7.3,1312.0
62,Cu1 Mn1 Ni1 Zn0.333,FCC,CAST,8.3,215.0
62,Cu1 Mn1 Ni1 Zn0.25,FCC,CAST,8.3,140.0
62,Al0.111 Cu1 Mn1 Ni1,FCC+Sec.,CAST,8.1,515.0
62,Cu1 Mn1 Ni1 Sn0.111,FCC+Sec.,CAST,8.3,630.0
62,Al0.053 Cu1 Mn1 Ni1,FCC,CAST,8.3,330.0
62,Cu1 Mn1 Ni1 Sn0.053,FCC+Sec.,CAST,8.4,380.0
64,Al0.5 Co1 Cr1 Cu1 Fe1 Ni1,FCC,CAST,7.6,388.0
64,Al1 Co0.5 Cr0.5 Cu0.5 Fe0.5 Ni0.5,BCC,CAST,6.3,1620.0
64,Al1 Co1 Cr1 Cu1 Fe1 Ni1,FCC+BCC,CAST,7.1,948.0
68,Al1 Nb1 Ti1 V1,B2,ANNEAL,5.5,1000.0
68,Al1 Nb1 Ti1 V1 Zr1,B2+Laves+Sec.,ANNEAL,5.8,1500.0
68,Al1 Nb1 Ti1 V1 Zr0.1,B2+Sec.,ANNEAL,5.5,1290.0
68,Al1 Nb1 Ti1 V1 Zr0.25,B2+Sec.,ANNEAL,5.6,1360.0
68,Al1 Nb1 Ti1 V1 Zr0.5,B2+Laves+Sec.,ANNEAL,5.6,1485.0
68,Al0.667 Nb0.667 Ti0.667 V0.667 Zr1,B2+Laves+Sec.,ANNEAL,5.8,1535.0
70,Cr1 Hf1 Nb1 Ti1 Zr1,BCC+Laves,ANNEAL,8.2,1457.0
70,Cr1 Hf1 Nb1 Ti1 Zr1,BCC+Laves,ANNEAL,8.2,1420.0
70,Cr1 Hf1 Nb1 Ti1 Zr1,BCC+Laves,ANNEAL,8.2,1328.0
70,Cr1 Hf1 Nb1 Ti1 Zr1,BCC+Laves,ANNEAL,8.2,1322.0
70,Cr1 Hf1 Nb1 Ti1 Zr1,BCC+Laves,CAST,8.2,1375.0
70,Hf1 Nb1 Ti1 V1 Zr1,BCC+Laves,ANNEAL,8.1,1157.0
70,Hf1 Nb1 Ti1 V1 Zr1,BCC,ANNEAL,8.1,1253.0
70,Hf1 Nb1 Ti1 V1 Zr1,BCC,ANNEAL,8.1,1140.0
70,Hf1 Nb1 Ti1 V1 Zr1,BCC,ANNEAL,8.1,1120.0
70,Hf1 Nb1 Ti1 V1 Zr1,BCC+Laves,CAST,8.1,1170.0
71,Cr1 Ta1 Ti0.17 V1 W1,BCC+Laves,POWDER,12.6,2034.0
71,Cr1 Ta1 Ti0.3 V1 W1,BCC+Laves,POWDER,12.3,2050.0
71,Cr1 Ta1 V1 W1,BCC+Laves,POWDER,13.0,2327.0
72,Hf0.26 Nb1 Ta1 Ti0.578 Zr0.416,BCC,CAST,10.4,845.0
73,Hf0.5 Mo0.5 Nb1 Si0.1 Ti1 Zr1,BCC+Sec.,CAST,7.7,1350.0
73,Hf0.5 Mo0.5 Nb1 Si0.3 Ti1 Zr1,BCC+Sec.,CAST,7.5,1370.0
73,Hf0.5 Mo0.5 Nb1 Si0.5 Ti1 Zr1,BCC+Sec.,CAST,7.2,1600.0
73,Hf0.5 Mo0.5 Nb1 Si0.7 Ti1 Zr1,BCC+Sec.,CAST,7.0,1550.0
73,Hf0.5 Mo0.5 Nb1 Si0.9 Ti1 Zr1,BCC+Sec.,CAST,6.8,1650.0
73,Hf0.5 Mo0.5 Nb1 Ti1 Zr1,BCC+Sec.,CAST,7.9,1150.0
74,Hf0.5 Nb0.667 Ta0.333 Ti1 Zr0.833,BCC,WROUGHT,8.4,1150.0
74,Hf0.5 Nb0.667 Ta0.333 Ti1 Zr0.833,BCC,WROUGHT,8.4,1100.0
74,Hf0.5 Nb0.667 Ta0.333 Ti1 Zr0.833,BCC,WROUGHT,8.4,890.0
75,Hf1 Mo0.5 Nb1 Si0.3 Ti1 V0.5,BCC+Sec.,CAST,8.5,1617.0
75,Hf1 Mo0.5 Nb1 Si0.5 Ti1 V0.5,BCC+Sec.,CAST,8.2,1787.0
75,Hf1 Mo0.5 Nb1 Si0.7 Ti1 V0.5,BCC+Sec.,CAST,7.9,2134.0
75,Hf1 Mo0.5 Nb1 Ti1 V0.5,BCC,CAST,9.0,1260.0
77,Al0.25 Nb1 Ta1 Ti1 Zr1,BCC+B2,OTHER,8.6,1745.0
77,Al0.5 Mo0.5 Nb1 Ta0.5 Ti1 Zr1,BCC+B2,OTHER,7.6,2350.0
77,Al1 Mo0.5 Nb1 Ta0.5 Ti1 Zr1,BCC+B2,OTHER,7.1,2197.0
77,Al1 Nb1 Ta0.5 Ti1 Zr0.5,B2,OTHER,6.9,1352.0
78,Hf1 Nb1 Si0.5 Ti1 V1 Zr1,BCC+Laves+Sec.,ANNEAL,7.5,1483.0
78,Hf1 Nb1 Si0.5 Ti1 V1 Zr1,BCC+Laves+Sec.,CAST,7.5,1540.0
83,Hf1 Nb1 Ta1 Ti1 Zr1,BCC,CAST,9.9,905.0
84,Hf1 Nb1 Ta1 Ti1 Zr1,BCC,CAST,9.9,890.0
86,Al0.2 Mo1 Ta1 Ti1 V1,BCC,CAST,9.3,1021.0
86,Al0.6 Mo1 Ta1 Ti1 V1,BCC,CAST,8.7,962.0
86,Mo1 Ta1 Ti1 V1,BCC,CAST,9.6,1221.0
87,Hf1 Nb1 Ta1 Zr1,BCC+HCP,ANNEAL,11.1,2310.0
87,Hf1 Nb1 Ta1 Zr1,BCC+HCP,ANNEAL,11.1,2100.0
87,Hf1 Nb1 Ta1 Zr1,BCC+HCP,ANNEAL,11.1,2020.0
87,Hf1 Nb1 Ta1 Zr1,BCC+HCP,ANNEAL,11.1,1950.0
87,Hf1 Nb1 Ta1 Zr1,BCC,CAST,11.1,1315.0
89,Mo1 Nb1 Ta1 Ti0.25 W1,BCC,CAST,13.1,1109.0
89,Mo1 Nb1 Ta1 Ti0.5 W1,BCC,CAST,12.6,1211.0
89,Mo1 Nb1 Ta1 Ti0.75 W1,BCC,CAST,12.2,1304.0
89,Mo1 Nb1 Ta1 Ti1 W1,BCC,CAST,11.8,1455.0
89,Mo1 Nb1 Ta1 W1,BCC,CAST,13.7,996.0
90,Mo1 Nb1 Ta1 Ti1 V1,BCC,CAST,9.4,1400.0
91,Mo1 Nb1 Ta1 Ti1 V1 W1,BCC,CAST,11.0,1515.0
91,Mo1 Nb1 Ta1 Ti1 W1,BCC,CAST,11.8,1343.0
92,Mo1 Nb1 Ta1 Ti1 Zr1,BCC+BCC,CAST,9.1,1390.0
93,Mo1 Nb1 Ta1 Ti1 Zr1,BCC+BCC,ANNEAL,9.1,1100.0
93,Mo1 Nb1 Ta1 Ti1 Zr1,BCC+BCC,CAST,9.1,1375.0
94,Mo1 Nb1 Ta1 V1 W1,BCC,POWDER,12.4,2612.0
95,Nb1 Ta1 Ti1 V1,BCC,CAST,9.2,965.0
95,Nb1 Ta1 Ti1 V1 W1,BCC,CAST,11.1,1420.0
95,Nb1 Ta1 V1 W1,BCC,CAST,12.9,1530.0
96,Al0.25 Cr0.5 Nb0.5 Ti1 V0.25,BCC+Laves,ANNEAL,5.8,1340.0
96,Al0.25 Cr0.5 Nb0.5 Ti1 V0.25,BCC,CAST,5.8,1240.0
97,Al1 Cr0.5 Nb1 Ti1 V1,BCC,ANNEAL,5.6,1300.0
97,Al0.667 Cr1 Nb0.667 Ti0.667 V0.667,BCC+Laves,ANNEAL,5.9,1700.0
97,Al1 Cr1 Nb1 Ti1 V1,BCC+Laves,ANNEAL,5.8,1550.0
97,Al1 Nb1 Ti1 V1,BCC,ANNEAL,5.5,1000.0
151,Cr0.5 Fe1 Mn0.625 Ni0.375,FCC+BCC,CAST,7.8,219.0
151,Al0.05 Cr0.5 Fe1 Mn0.625 Ni0.375,FCC+BCC,CAST,7.6,354.0
151,Al0.15 Cr0.5 Fe1 Mn0.625 Ni0.375,FCC+BCC,CAST,7.4,550.0
151,Al0.25 Cr0.5 Fe1 Mn0.625 Ni0.375,B2+BCC,CAST,7.2,994.0
151,Al0.35 Cr0.5 Fe1 Mn0.625 Ni0.375,B2+BCC,CAST,6.9,942.0
188,Al1 Co1 Cr1 Fe1 Ni1,BCC+B2,CAST,6.7,1380.0
188,Al1 Co1 Cr1 Fe1 Ni1,BCC+B2+FCC+Sec.,ANNEAL,6.7,1430.0
188,Al1 Co1 Cr1 Fe1 Ni1,BCC+B2+FCC,ANNEAL,6.7,1690.0
188,Al1 Co1 Cr1 Fe1 Ni1,BCC+B2+FCC,ANNEAL,6.7,1220.0
188,Al1 Co1 Cr1 Fe1 Ni1,BCC+B2+FCC,ANNEAL,6.7,1450.0
193,Al0.885 Cr1 Fe1 Ni1,BCC+B2,CAST,6.4,770.0
193,Al1 Cr1 Fe1 Ni1,BCC+B2,CAST,6.3,843.2
193,Al1 Cr0.889 Fe0.889 Ni0.889,BCC+B2,CAST,6.1,1044.0
193,Al1 Cr0.828 Fe0.828 Ni0.828,BCC+B2,CAST,6.0,906.8
193,Al1 Cr0.767 Fe0.767 Ni0.767,BCC+B2,CAST,5.9,1122.8
202,Co1 Cr1 Fe1 Mn1 Ni1,FCC,ANNEAL,8.0,230.0
202,Co1 Cr1 Fe1 Mn1 Ni1 V0.263,FCC+Sec.,ANNEAL,7.9,200.0
202,Co1 Cr1 Fe1 Mn1 Ni1 V0.5,FCC+Sec.,ANNEAL,7.8,620.0
202,Co1 Cr1 Fe1 Mn1 Ni1 V0.765,FCC+Sec.,ANNEAL,7.7,780.0
202,Co1 Cr1 Fe1 Mn1 Ni1 V1,FCC+Sec.,ANNEAL,7.7,1700.0
115,Co1 Cr1 Fe1 Mn1 Ni1,FCC,CAST,8.0,210.0
115,Co1 Cr1 Fe1 Mn1 Ni1,FCC,WROUGHT,8.0,1150.0
115,Co1 Cr1 Fe1 Mn1 Ni1,FCC,WROUGHT,8.0,1300.0
125,Nb1 Ta1 Ti1 V1,BCC,POWDER,9.2,1108.0
125,Nb1 Ta1 Ti1 V1,BCC,POWDER,9.2,1308.0
125,Nb1 Ta1 Ti1 V1,BCC,POWDER,9.2,1373.0
136,Co1 Cr1 Fe1 Mn1 Ni1,FCC+BCC,CAST,8.0,1314.0
136,Al0.1 Co1 Cr1 Fe1 Mn1 Ni1,FCC+BCC,CAST,7.9,1631.0
136,Al0.3 Co1 Cr1 Fe1 Mn1 Ni1,FCC+BCC,CAST,7.6,1836.0
136,Al0.5 Co1 Cr1 Fe1 Mn1 Ni1,FCC+BCC,CAST,7.4,1932.0
136,Al0.7 Co1 Cr1 Fe1 Mn1 Ni1,FCC+BCC,CAST,7.1,2230.0
139,Co1 Cr1 Fe1 Mn1 Ni1,FCC,CAST,8.0,216.0
139,Co1 Cr1 Fe1 Mn1 Mo0.042 Ni1,FCC,CAST,8.1,225.0
139,Co1 Cr1 Fe1 Mn1 Mo0.087 Ni1,FCC+Sec.,CAST,8.1,330.0
139,Co1 Cr1 Fe1 Mn1 Mo0.136 Ni1,FCC+Sec.,CAST,8.1,560.0
139,Co1 Cr1 Fe1 Mn1 Mo0.19 Ni1,FCC+Sec.,CAST,8.1,765.0
142,Al1 Co1 Cr1 Ni1,BCC+B2,CAST,6.4,1750.0
147,Cr1 Mo1 Nb1 Ta1 V1 W1,BCC+Laves+Sec.,POWDER,11.7,3416.0
147,Cr1 Mo1 Nb1 Ta1 V1 W1,BCC+Laves+Sec.,POWDER,11.7,3410.0
147,Cr1 Mo1 Nb1 Ta1 V1 W1,BCC+Laves+Sec.,POWDER,11.7,3338.0
153,Al0.544 C0.001 Co0.69 Fe1 Ni0.69,B2+L12,CAST,7.0,1202.0
206,Cr0.286 Mo0.476 Nb1 Ta0.024 Ti0.31 V0.286,BCC+Sec.,POWDER,8.0,2680.0
207,Hf1 Mo1 Nb1 Ti1 Zr1,BCC,CAST,8.7,1719.0
215,Al1 Co1 Cr1 Fe1 Ni1,B2+BCC,CAST,6.7,1631.0
215,Al1 Co1 Cr1 Fe1 Ni1,B2+BCC,CAST,6.7,1209.0
219,Mo1 Nb1 Re0.5 W1,BCC,CAST,13.7,896.0
219,C0.2 Mo1 Nb1 Re0.5 Ta0.2 W1,BCC+Sec.,CAST,13.5,1074.0
219,C0.4 Mo1 Nb1 Re0.5 Ta0.4 W1,BCC+Sec.,CAST,13.4,1144.0
219,C0.5 Mo1 Nb1 Re0.5 Ta0.5 W1,BCC+Sec.,CAST,13.3,1202.0
219,C0.6 Mo1 Nb1 Re0.5 Ta0.6 W1,BCC+Sec.,CAST,13.3,1241.0
224,Al1 Co0.5 Cr0.5 Fe0.5 Ni0.5,BCC+B2,CAST,5.9,1241.0
224,Al1 Co0.556 Cr0.556 Fe0.556 Ni0.556 Ti0.111,BCC+B2,CAST,5.9,1324.0
224,Al1 Co0.667 Cr0.667 Fe0.667 Ni0.667 Ti0.333,BCC+B2,CAST,6.1,1566.0
224,Al1 Co0.833 Cr0.833 Fe0.833 Ni0.833 Ti0.667,BCC+B2,CAST,6.2,1503.0
224,Al1 Co1 Cr1 Fe1 Ni1 Ti1,BCC+B2+Laves,CAST,6.2,1448.0
224,Al0.667 Co0.833 Cr0.833 Fe0.833 Ni0.833 Ti1,BCC+B2+Laves,CAST,6.3,1272.0
230,Hf1 Nb1 Ta1 Ti1 W1 Zr1,BCC+Laves,CAST,11.2,1550.0
230,Hf1 Mo1 Nb1 Ta1 Ti1 W1 Zr1,BCC+Laves,CAST,11.1,1637.0
231,Nb1 Ti1 Zr1,BCC,CAST,6.5,1223.0
231,Hf1 Nb1 Ti1 Zr1,BCC,CAST,8.4,1000.0
232,Co1 Cr1 Fe1 Ni1,FCC,CAST,8.2,163.0
232,Co1 Cr1 Fe1 Ni1 W0.2,FCC,CAST,8.9,335.0
232,Co1 Cr1 Fe1 Ni1 W0.5,FCC+Sec.,CAST,9.8,556.0
233,Cr1 Fe1 Mo1 Nb1 V1,BCC+Laves,CAST,8.1,2663.0
233,Cr1 Fe1 Mo1 Nb1 Ti1,BCC+Laves,CAST,7.6,1647.0
233,Fe1 Mo1 Nb1 Ti1 V1,BCC+B2,CAST,7.4,1707.0
239,Hf0.25 Ti1 V0.5 Zr0.5,BCC,CAST,6.5,1160.0
239,Hf0.25 Nb0.125 Ti1 V0.5 Zr0.5,BCC,CAST,6.6,1115.0
239,Hf0.25 Nb0.25 Ti1 V0.5 Zr0.5,BCC,CAST,6.7,1065.0
239,Hf0.25 Nb0.375 Ti1 V0.5 Zr0.5,BCC,CAST,6.8,1025.0
239,Hf0.25 Nb0.5 Ti1 V0.5 Zr0.5,BCC,CAST,6.9,980.0
243,Al1 Co1 Cr1 Fe1 Ni1,BCC+FCC,POWDER,6.7,1221.1
243,Al1 Co1 Cr1 Fe1 Ni1,BCC+FCC,POWDER,6.7,1186.7
243,Al1 Co1 Cr1 Fe1 Ni1,BCC+FCC,POWDER,6.7,1112.9
244,Cr1 Mo1 Nb1 Ti1 W1,BCC+Laves,POWDER,9.9,2500.0
244,Cr1 Mo1 Nb1 Ti1 W1,BCC+Laves,POWDER,9.9,1260.0
244,Cr1 Mo1 Nb1 Ti1 W1,BCC+Laves,POWDER,9.9,1630.0
244,Cr1 Mo1 Nb1 Ti1 W1,BCC+Laves,POWDER,9.9,2030.0
244,Cr1 Mo1 Nb1 Ti1 W1,BCC+Laves,POWDER,9.9,1920.0
246,Al1 Co1 Cr1 Fe1 Ni1,BCC+B2+FCC,POWDER,6.7,520.0
246,Al1 Co1 Cr1 Fe1 Ni1,BCC+B2+FCC,POWDER,6.7,1150.0
246,Al1 Co1 Cr1 Fe1 Ni1,BCC+B2+FCC,POWDER,6.7,1287.0
246,Al1 Co1 Cr1 Fe1 Ni1,BCC+B2+FCC,POWDER,6.7,1286.0
246,Al1 Co1 Cr1 Fe1 Ni1,BCC+B2+FCC,POWDER,6.7,1390.0
246,Al1 Co1 Cr1 Fe1 Ni1,BCC+B2+FCC,POWDER,6.7,1626.0
250,Al0.5 Nb1 Ta0.5 Ti1 Zr1,BCC+HCP,WROUGHT,7.3,1500.0
250,Al0.5 Nb1 Ta0.5 Ti1 Zr1,BCC+HCP,WROUGHT,7.3,1200.0
250,Al0.5 Nb1 Ta0.5 Ti1 Zr1,BCC+HCP,WROUGHT,7.3,2100.0
250,Al0.5 Nb1 Ta0.5 Ti1 Zr1,BCC+HCP,WROUGHT,7.3,1740.0
250,Al0.5 Nb1 Ta0.5 Ti1 Zr1,BCC+HCP,WROUGHT,7.3,1630.0
251,Mo1 Nb1 Ta1 W1,BCC,POWDER,13.7,1217.0
251,Mo1 Nb1 Si0.25 Ta1 W1,BCC+Sec.,POWDER,12.9,1826.0
251,Mo1 Nb1 Si0.5 Ta1 W1,BCC+Sec.,POWDER,12.2,1883.0
251,Mo1 Nb1 Si0.75 Ta1 W1,BCC+Sec.,POWDER,11.6,2483.0
253,C0.1 Co1 Cr1 Fe1 Mn1 Ni1 Ti0.1,FCC+Sec.,POWDER,7.8,1616.0
253,C0.1 Co1 Cr1 Fe1 Mn1 Ni1 Ti0.1,FCC+Sec.,POWDER,7.8,1652.0
253,C0.1 Co1 Cr1 Fe1 Mn1 Ni1 Ti0.1,FCC+Sec.,POWDER,7.8,1490.0
253,C0.1 Co1 Cr1 Fe1 Mn1 Ni1 Ti0.1,FCC+Sec.,POWDER,7.8,1194.0
263,Al1 Co1 Cu1 Fe1 Ni0.5,FCC+BCC+B2,CAST,6.9,929.0
263,Al1 Co1 Cu1 Fe1 Ni0.8,FCC+BCC+B2,CAST,7.0,1021.0
263,Al1 Co1 Cu1 Fe1 Ni1,FCC+BCC+B2,CAST,7.0,994.0
263,Al0.667 Co0.667 Cu0.667 Fe0.667 Ni1,FCC+BCC+B2,CAST,7.2,680.0
263,Al0.5 Co0.5 Cu0.5 Fe0.5 Ni1,FCC+BCC+B2,CAST,7.3,544.0
263,Al0.333 Co0.333 Cu0.333 Fe0.333 Ni1,FCC,CAST,7.5,268.0
99,Al0.5 Cr1 Fe1 Mn1 Ni1,BCC+B2,CAST,7.1,1091.0
99,Al0.6 Cr1 Fe1 Mn1 Ni1,BCC+B2,CAST,6.9,1130.0
99,Al0.7 Cr1 Fe1 Mn1 Ni1,BCC+B2,CAST,6.8,1170.0
99,Al0.8 Cr1 Fe1 Mn1 Ni1,BCC+B2,CAST,6.7,1200.0
101,Al1 Cu0.077 Fe0.077 Mg0.077 Si0.231 Zn0.077,FCC,CAST,3.2,422.0
101,Al1 Cu0.077 Mg0.077 Ni0.077 Si0.231 Zn0.077,FCC,CAST,3.2,534.0
101,Al1 Cr0.077 Cu0.077 Mg0.077 Si0.231 Zn0.077,FCC,CAST,3.1,490.0
101,Al1 Cu0.077 Mg0.077 Mn0.077 Si0.231 Zn0.077,FCC,CAST,3.2,622.0
101,Al1 Cu0.077 Mg0.077 Si0.231 Zn0.077 Zr0.077,FCC+Laves,CAST,3.2,565.0
104,Co1 Cr1 Fe1 Mn0.2 Ni1 Pd1,FCC+Sec.,CAST,9.1,650.0
104,Co1 Cr1 Fe1 Mn0.4 Ni1 Pd1,FCC+Sec.,CAST,9.1,650.0
104,Co1 Cr1 Fe1 Mn0.6 Ni1 Pd1,FCC+Sec.,CAST,9.0,650.0
104,Co1 Cr1 Fe1 Mn0.8 Ni1 Pd1,FCC+Sec.,CAST,8.9,650.0
107,Cr1 Fe1 Ni1 Ti0.2,BCC+FCC,CAST,7.6,2297.94
107,Cr1 Fe1 Ni1 Ti0.3,BCC+FCC,CAST,7.5,2364.63
107,Cr1 Fe1 Ni1 Ti0.4,BCC,CAST,7.4,2475.41
107,Cr1 Fe1 Ni1 Ti0.5,BCC,CAST,7.3,2380.79
107,Cr1 Fe1 Ni1 Ti0.6,BCC,CAST,7.2,1923.15
108,Al1 Cr1 Cu1 Fe1 Mn1,Other,POWDER,6.5,1010.0
108,Al1 Cr1 Cu1 Fe1 Mn1 W0.05,BCC+Sec.,POWDER,6.7,1120.0
108,Al1 Cr1 Cu1 Fe1 Mn1 W0.1,BCC+Sec.,POWDER,6.8,1250.0
108,Al1 Cr1 Cu1 Fe1 Mn1 W0.5,BCC+Sec.,POWDER,7.9,1510.0
109,Co0.2 Cu0.2 Fe0.2 Nb1 Ni0.2,FCC+Laves,WROUGHT,8.6,1498.0
109,Co0.133 Cu0.133 Fe0.133 Nb1 Ni0.133,FCC+Laves,WROUGHT,8.6,1635.0
109,Co0.086 Cu0.086 Fe0.086 Nb1 Ni0.086,FCC+Laves,WROUGHT,8.6,1703.0
109,Co0.067 Cu0.067 Fe0.067 Nb1 Ni0.067,FCC+Laves,WROUGHT,8.6,1415.0
112,Hf1 Ti1 Zr1,Other,CAST,8.3,773.0
112,Hf1 Sc1 Ti1 Zr1,Other,CAST,6.8,1001.0
112,Hf1 Ti1 Y1 Zr1,Other,CAST,7.0,554.0
112,Hf1 Sc1 Ti1 Y1 Zr1,Other,CAST,6.2,793.0
114,Al0.562 Co0.938 Cr0.312 Fe0.312 Ni1,FCC+BCC,CAST,7.1,1129.4
114,Al0.581 Co0.968 Cr0.323 Fe0.323 Mo0.032 Ni1,FCC+BCC,CAST,7.1,1159.7
114,Al0.6 Co1 Cr0.333 Fe0.333 Mo0.067 Ni1,FCC+BCC,CAST,7.1,1250.8
114,Al0.6 Co1 Cr0.333 Fe0.333 Mo0.1 Ni0.967,FCC+BCC,CAST,7.2,1198.3
117,Co1 Cr1 Cu1 Fe1 Ni1,FCC,CAST,8.3,300.0
117,Co1 Cr1 Cu1 Fe1 Ni1 V0.042,FCC+Sec.,CAST,8.3,303.0
117,Co1 Cr1 Cu1 Fe1 Ni1 V0.087,FCC+Sec.,CAST,8.3,307.0
117,Co1 Cr1 Cu1 Fe1 Ni1 V0.136,FCC+Sec.,CAST,8.3,330.0
117,Co1 Cr1 Cu1 Fe1 Ni1 V0.19,FCC+Sec.,CAST,8.2,616.0
118,Co1 Cr1 Cu1 Ni1 Zn1,FCC+FCC,POWDER,8.1,2121.0
124,Co1 Cr1 Fe1 Mn1 Ni1,FCC,POWDER,8.0,1100.0
127,Hf1 Mo1 Nb1 Ta1 Ti1 Zr1,BCC,CAST,9.9,1512.0
127,Hf1 Mo1 Ta1 Ti1 Zr1,BCC,CAST,10.2,1600.0
127,Hf1 Mo1 Nb1 Ti1 Zr1,BCC,CAST,8.7,1351.0
127,Hf1 Mo1 Nb1 Ta1 Zr1,BCC,CAST,10.9,1524.0
127,Hf1 Mo1 Nb1 Ta1 Ti1,BCC,CAST,10.8,1369.0
129,Al0.267 Co1 Cr0.667 Fe0.667 Ni0.667 Ti0.2,FCC+BCC,POWDER,7.3,2012.0
131,Al1 Nb1 Ti1 Zr1,B2,CAST,5.7,1509.0
131,Al1 Nb1 Ti1 Zr1,B2+Sec.,ANNEAL,5.7,1579.0
264,Al1 Cr1 Fe1 Mo0.5 Ni1,BCC+B2,CAST,6.8,1914.1
264,Al1 Cr1 Fe1 Mo0.5 Ni1 Ti0.25,BCC+B2,CAST,6.6,2161.7
264,Al1 Cr1 Fe1 Mo0.5 Ni1 Ti0.4,BCC+B2,CAST,6.5,2185.1
264,Al1 Cr1 Fe1 Mo0.5 Ni1 Ti0.5,BCC+B2,CAST,6.5,2228.7
264,Al1 Cr1 Fe1 Mo0.5 Ni1 Ti0.6,BCC+B2,CAST,6.4,1314.5
264,Al1 Cr1 Fe1 Mo0.5 Ni1 Ti0.75,BCC+B2,CAST,6.4,618.8