Reference ID,Formula,Microstructure,Processing Method,Calculated Density (g/cm³),Yield Strength (MPa),Strength-to-Weight Ratio (MPa·cm³/g)
12,Al1 Co1 Cr1 Fe1 Ni1 Si0.8,BCC+Sec.,CAST,5.8,2179.0,375.6896551724138
14,Al0.667 Co0.667 Cr0.667 Fe0.667 Ni0.667 Ti1,BCC+Sec.,CAST,6.1,2220.0,363.93442622950823
14,Al1 Co1 Cr1 Fe1 Ni1 Ti0.5,BCC+BCC,CAST,6.4,2260.0,353.125
264,Al1 Cr1 Fe1 Mo0.5 Ni1 Ti0.5,BCC+B2,CAST,6.5,2228.7,342.87692307692305
264,Al1 Cr1 Fe1 Mo0.5 Ni1 Ti0.4,BCC+B2,CAST,6.5,2185.1,336.16923076923075
264,Al1 Cr1 Fe1 Mo0.5 Ni1 Ti0.25,BCC+B2,CAST,6.6,2161.7,327.530303030303